# vtk DataFile Version 2.0
VTK file for ./Data/RunOn3_23_2010Bree/Velocity_time_00000002.vtk at time 0.40000000
ASCII
DATASET RECTILINEAR_GRID
DIMENSIONS 128 128 1
X_COORDINATES 128 double
-2.48047 -2.44141 -2.40234 -2.36328 -2.32422 -2.28516 -2.24609 -2.20703 -2.16797 -2.12891 -2.08984 -2.05078 -2.01172 -1.97266 -1.93359 -1.89453 -1.85547 -1.81641 -1.77734 -1.73828 -1.69922 -1.66016 -1.62109 -1.58203 -1.54297 -1.50391 -1.46484 -1.42578 -1.38672 -1.34766 -1.30859 -1.26953 -1.23047 -1.19141 -1.15234 -1.11328 -1.07422 -1.03516 -0.996094 -0.957031 -0.917969 -0.878906 -0.839844 -0.800781 -0.761719 -0.722656 -0.683594 -0.644531 -0.605469 -0.566406 -0.527344 -0.488281 -0.449219 -0.410156 -0.371094 -0.332031 -0.292969 -0.253906 -0.214844 -0.175781 -0.136719 -0.0976562 -0.0585938 -0.0195312 0.0195312 0.0585938 0.0976562 0.136719 0.175781 0.214844 0.253906 0.292969 0.332031 0.371094 0.410156 0.449219 0.488281 0.527344 0.566406 0.605469 0.644531 0.683594 0.722656 0.761719 0.800781 0.839844 0.878906 0.917969 0.957031 0.996094 1.03516 1.07422 1.11328 1.15234 1.19141 1.23047 1.26953 1.30859 1.34766 1.38672 1.42578 1.46484 1.50391 1.54297 1.58203 1.62109 1.66016 1.69922 1.73828 1.77734 1.81641 1.85547 1.89453 1.93359 1.97266 2.01172 2.05078 2.08984 2.12891 2.16797 2.20703 2.24609 2.28516 2.32422 2.36328 2.40234 2.44141 2.48047 
Y_COORDINATES 128 double
-2.48047 -2.44141 -2.40234 -2.36328 -2.32422 -2.28516 -2.24609 -2.20703 -2.16797 -2.12891 -2.08984 -2.05078 -2.01172 -1.97266 -1.93359 -1.89453 -1.85547 -1.81641 -1.77734 -1.73828 -1.69922 -1.66016 -1.62109 -1.58203 -1.54297 -1.50391 -1.46484 -1.42578 -1.38672 -1.34766 -1.30859 -1.26953 -1.23047 -1.19141 -1.15234 -1.11328 -1.07422 -1.03516 -0.996094 -0.957031 -0.917969 -0.878906 -0.839844 -0.800781 -0.761719 -0.722656 -0.683594 -0.644531 -0.605469 -0.566406 -0.527344 -0.488281 -0.449219 -0.410156 -0.371094 -0.332031 -0.292969 -0.253906 -0.214844 -0.175781 -0.136719 -0.0976562 -0.0585938 -0.0195312 0.0195312 0.0585938 0.0976562 0.136719 0.175781 0.214844 0.253906 0.292969 0.332031 0.371094 0.410156 0.449219 0.488281 0.527344 0.566406 0.605469 0.644531 0.683594 0.722656 0.761719 0.800781 0.839844 0.878906 0.917969 0.957031 0.996094 1.03516 1.07422 1.11328 1.15234 1.19141 1.23047 1.26953 1.30859 1.34766 1.38672 1.42578 1.46484 1.50391 1.54297 1.58203 1.62109 1.66016 1.69922 1.73828 1.77734 1.81641 1.85547 1.89453 1.93359 1.97266 2.01172 2.05078 2.08984 2.12891 2.16797 2.20703 2.24609 2.28516 2.32422 2.36328 2.40234 2.44141 2.48047 
Z_COORDINATES 1 double
0
POINT_DATA 16384
VECTORS vector double 
0.0172701 -7.19932e-06  0.0 
0.0172844 -7.16817e-06  0.0 
0.0172986 -6.96935e-06  0.0 
0.017312 -6.49188e-06  0.0 
0.0173241 -5.62395e-06  0.0 
0.017334 -4.25297e-06  0.0 
0.0173405 -2.26566e-06  0.0 
0.0173423 4.51756e-07  0.0 
0.0173378 4.01336e-06  0.0 
0.0173252 8.53315e-06  0.0 
0.0173026 1.41246e-05  0.0 
0.0172675 2.09003e-05  0.0 
0.0172176 2.89707e-05  0.0 
0.0171502 3.84441e-05  0.0 
0.0170623 4.94247e-05  0.0 
0.0169509 6.20121e-05  0.0 
0.0168126 7.62997e-05  0.0 
0.0166439 9.2373e-05  0.0 
0.0164412 0.000110308  0.0 
0.0162007 0.000130169  0.0 
0.0159185 0.000152006  0.0 
0.0155907 0.000175854  0.0 
0.0152131 0.000201729  0.0 
0.0147817 0.000229625  0.0 
0.0142926 0.000259513  0.0 
0.0137417 0.000291337  0.0 
0.0131254 0.000325011  0.0 
0.0124399 0.000360418  0.0 
0.0116821 0.000397404  0.0 
0.0108489 0.000435781  0.0 
0.00993779 0.00047532  0.0 
0.00894671 0.000515752  0.0 
0.00787418 0.000556769  0.0 
0.00671938 0.000598021  0.0 
0.00548224 0.000639115  0.0 
0.00416349 0.000679625  0.0 
0.00276477 0.000719085  0.0 
0.00128868 0.000756998  0.0 
-0.000261169 0.000792842  0.0 
-0.00188009 0.000826073  0.0 
-0.00356231 0.000856135  0.0 
-0.00530092 0.000882468  0.0 
-0.00708792 0.000904517  0.0 
-0.00891419 0.000921743  0.0 
-0.0107696 0.000933634  0.0 
-0.0126429 0.000939718  0.0 
-0.0145222 0.000939572  0.0 
-0.0163947 0.000932838  0.0 
-0.0182467 0.000919226  0.0 
-0.0200645 0.000898533  0.0 
-0.0218337 0.000870645  0.0 
-0.0235399 0.000835548  0.0 
-0.0251688 0.000793329  0.0 
-0.0267063 0.000744183  0.0 
-0.0281389 0.000688409  0.0 
-0.0294538 0.000626411  0.0 
-0.0306389 0.000558693  0.0 
-0.0316834 0.000485849  0.0 
-0.0325779 0.000408557  0.0 
-0.033314 0.000327566  0.0 
-0.0338853 0.000243681  0.0 
-0.0342867 0.000157752  0.0 
-0.0345151 7.06556e-05  0.0 
-0.0345691 -1.67201e-05  0.0 
-0.0344489 -0.000103491  0.0 
-0.0341566 -0.000188793  0.0 
-0.033696 -0.000271797  0.0 
-0.0330725 -0.000351723  0.0 
-0.032293 -0.000427848  0.0 
-0.0313656 -0.000499525  0.0 
-0.0302999 -0.00056618  0.0 
-0.0291065 -0.00062733  0.0 
-0.0277966 -0.000682576  0.0 
-0.0263824 -0.000731614  0.0 
-0.0248766 -0.000774231  0.0 
-0.0232921 -0.000810305  0.0 
-0.021642 -0.000839798  0.0 
-0.0199394 -0.000862759  0.0 
-0.0181974 -0.000879309  0.0 
-0.0164285 -0.00088964  0.0 
-0.0146448 -0.000894007  0.0 
-0.0128581 -0.000892717  0.0 
-0.0110793 -0.000886124  0.0 
-0.00931861 -0.000874618  0.0 
-0.0075854 -0.000858617  0.0 
-0.00588825 -0.00083856  0.0 
-0.00423482 -0.000814898  0.0 
-0.00263186 -0.000788089  0.0 
-0.00108521 -0.000758589  0.0 
0.000400196 -0.000726846  0.0 
0.00182031 -0.000693297  0.0 
0.00317194 -0.000658361  0.0 
0.00445271 -0.000622438  0.0 
0.00566102 -0.000585902  0.0 
0.006796 -0.000549103  0.0 
0.00785743 -0.000512362  0.0 
0.00884574 -0.000475972  0.0 
0.00976187 -0.000440193  0.0 
0.0106073 -0.000405259  0.0 
0.0113839 -0.000371373  0.0 
0.012094 -0.000338709  0.0 
0.01274 -0.000307412  0.0 
0.013325 -0.000277603  0.0 
0.013852 -0.000249376  0.0 
0.0143241 -0.000222801  0.0 
0.0147448 -0.000197926  0.0 
0.0151175 -0.000174781  0.0 
0.0154456 -0.000153375  0.0 
0.0157327 -0.000133702  0.0 
0.0159821 -0.000115739  0.0 
0.0161973 -9.94526e-05  0.0 
0.0163815 -8.47954e-05  0.0 
0.016538 -7.17108e-05  0.0 
0.0166698 -6.01331e-05  0.0 
0.0167799 -4.99891e-05  0.0 
0.016871 -4.11993e-05  0.0 
0.0169459 -3.36786e-05  0.0 
0.0170069 -2.73377e-05  0.0 
0.0170563 -2.20832e-05  0.0 
0.0170962 -1.78191e-05  0.0 
0.0171284 -1.44466e-05  0.0 
0.0171547 -1.18651e-05  0.0 
0.0171765 -9.97223e-06  0.0 
0.0171951 -8.66442e-06  0.0 
0.0172116 -7.83684e-06  0.0 
0.0172268 -7.38369e-06  0.0 
0.0172414 -7.19824e-06  0.0 
0.0172557 -7.17292e-06  0.0 
0.0172701 -2.16386e-05  0.0 
0.0172847 -2.16558e-05  0.0 
0.0172992 -2.11708e-05  0.0 
0.0173134 -1.98507e-05  0.0 
0.0173263 -1.736e-05  0.0 
0.0173373 -1.33608e-05  0.0 
0.0173452 -7.5132e-06  0.0 
0.0173486 5.24523e-07  0.0 
0.0173459 1.10949e-05  0.0 
0.0173353 2.45403e-05  0.0 
0.0173149 4.12019e-05  0.0 
0.0172824 6.14177e-05  0.0 
0.0172352 8.55207e-05  0.0 
0.0171707 0.000113836  0.0 
0.0170859 0.000146678  0.0 
0.0169778 0.000184346  0.0 
0.0168429 0.000227123  0.0 
0.0166779 0.000275267  0.0 
0.016479 0.000329007  0.0 
0.0162424 0.000388538  0.0 
0.0159642 0.000454015  0.0 
0.0156404 0.000525543  0.0 
0.0152668 0.000603173  0.0 
0.0148395 0.000686891  0.0 
0.0143543 0.000776611  0.0 
0.0138072 0.000872169  0.0 
0.0131944 0.000973309  0.0 
0.0125123 0.00107968  0.0 
0.0117574 0.00119083  0.0 
0.0109268 0.00130619  0.0 
0.0100178 0.00142507  0.0 
0.00902816 0.00154668  0.0 
0.00795645 0.00167008  0.0 
0.00680173 0.00179423  0.0 
0.00556384 0.00191794  0.0 
0.00424346 0.00203993  0.0 
0.00284214 0.00215881  0.0 
0.00136244 0.00227307  0.0 
-0.000192094 0.00238115  0.0 
-0.0018168 0.0024814  0.0 
-0.00350592 0.00257214  0.0 
-0.00525254 0.0026517  0.0 
-0.00704864 0.00271838  0.0 
-0.00888507 0.00277057  0.0 
-0.0107516 0.00280672  0.0 
-0.012637 0.00282539  0.0 
-0.0145291 0.00282532  0.0 
-0.016415 0.0028054  0.0 
-0.018281 0.00276477  0.0 
-0.0201131 0.00270281  0.0 
-0.0218967 0.00261916  0.0 
-0.0236172 0.00251378  0.0 
-0.0252602 0.00238693  0.0 
-0.0268112 0.00223919  0.0 
-0.0282567 0.00207146  0.0 
-0.0295835 0.00188497  0.0 
-0.0307794 0.00168122  0.0 
-0.0318336 0.00146201  0.0 
-0.0327361 0.00122939  0.0 
-0.0334789 0.000985607  0.0 
-0.0340551 0.000733104  0.0 
-0.0344597 0.00047444  0.0 
-0.0346896 0.000212262  0.0 
-0.0347432 -5.07489e-05  0.0 
-0.034621 -0.000311925  0.0 
-0.0343249 -0.000568661  0.0 
-0.033859 -0.000818454  0.0 
-0.0332286 -0.00105895  0.0 
-0.0324408 -0.00128798  0.0 
-0.031504 -0.00150358  0.0 
-0.0304278 -0.00170403  0.0 
-0.0292229 -0.00188787  0.0 
-0.0279009 -0.00205392  0.0 
-0.0264741 -0.00220124  0.0 
-0.0249553 -0.00232922  0.0 
-0.0233576 -0.00243747  0.0 
-0.0216944 -0.00252591  0.0 
-0.019979 -0.00259467  0.0 
-0.0182243 -0.00264412  0.0 
-0.0164432 -0.00267486  0.0 
-0.0146479 -0.00268765  0.0 
-0.0128503 -0.00268343  0.0 
-0.0110612 -0.00266326  0.0 
-0.00929111 -0.00262832  0.0 
-0.00754935 -0.00257988  0.0 
-0.00584454 -0.00251926  0.0 
-0.00418435 -0.00244782  0.0 
-0.00257555 -0.00236693  0.0 
-0.00102397 -0.00227798  0.0 
0.000465488 -0.00218232  0.0 
0.0018888 -0.00208125  0.0 
0.0032428 -0.00197604  0.0 
0.00452517 -0.0018679  0.0 
0.00573436 -0.00175794  0.0 
0.00686954 -0.00164722  0.0 
0.00793057 -0.00153671  0.0 
0.00891791 -0.00142727  0.0 
0.00983259 -0.0013197  0.0 
0.0106761 -0.0012147  0.0 
0.0114504 -0.00111287  0.0 
0.0121579 -0.00101473  0.0 
0.0128011 -0.000920721  0.0 
0.0133831 -0.000831199  0.0 
0.0139068 -0.000746447  0.0 
0.0143756 -0.000666673  0.0 
0.0147928 -0.000592022  0.0 
0.0151621 -0.000522576  0.0 
0.0154867 -0.000458365  0.0 
0.0157703 -0.000399367  0.0 
0.0160163 -0.000345515  0.0 
0.0162282 -0.000296702  0.0 
0.0164092 -0.000252787  0.0 
0.0165626 -0.0002136  0.0 
0.0166915 -0.00017894  0.0 
0.0167988 -0.000148588  0.0 
0.0168874 -0.000122304  0.0 
0.0169598 -9.98325e-05  0.0 
0.0170185 -8.09033e-05  0.0 
0.0170658 -6.52367e-05  0.0 
0.0171038 -5.25435e-05  0.0 
0.0171344 -4.25272e-05  0.0 
0.0171592 -3.48856e-05  0.0 
0.0171797 -2.93113e-05  0.0 
0.0171973 -2.54933e-05  0.0 
0.0172129 -2.31169e-05  0.0 
0.0172275 -2.18647e-05  0.0 
0.0172416 -2.14165e-05  0.0 
0.0172557 -2.14496e-05  0.0 
0.0172699 -3.62496e-05  0.0 
0.0172849 -3.66455e-05  0.0 
0.0173004 -3.62073e-05  0.0 
0.0173158 -3.43801e-05  0.0 
0.0173306 -3.06046e-05  0.0 
0.0173438 -2.43172e-05  0.0 
0.0173544 -1.49508e-05  0.0 
0.0173609 -1.93533e-06  0.0 
0.0173618 1.53013e-05  0.0 
0.0173553 3.73313e-05  0.0 
0.0173394 6.4725e-05  0.0 
0.0173118 9.80481e-05  0.0 
0.0172701 0.000137858  0.0 
0.0172114 0.000184701  0.0 
0.0171329 0.000239104  0.0 
0.0170313 0.000301573  0.0 
0.0169035 0.000372581  0.0 
0.0167458 0.000452565  0.0 
0.0165545 0.000541915  0.0 
0.0163257 0.000640962  0.0 
0.0160555 0.000749973  0.0 
0.0157398 0.000869131  0.0 
0.0153744 0.000998529  0.0 
0.0149552 0.00113815  0.0 
0.0144778 0.00128787  0.0 
0.0139384 0.00144742  0.0 
0.0133329 0.00161637  0.0 
0.0126574 0.00179417  0.0 
0.0119086 0.00198004  0.0 
0.0110831 0.00217307  0.0 
0.0101783 0.0023721  0.0 
0.00919172 0.00257581  0.0 
0.00812173 0.00278265  0.0 
0.00696724 0.00299086  0.0 
0.00572795 0.00319848  0.0 
0.00440436 0.00340336  0.0 
0.00299791 0.00360315  0.0 
0.00151102 0.00379533  0.0 
-5.28434e-05 0.00397728  0.0 
-0.0016891 0.00414623  0.0 
-0.00339201 0.00429935  0.0 
-0.00515469 0.0044338  0.0 
-0.00696904 0.00454675  0.0 
-0.00882585 0.00463545  0.0 
-0.0107148 0.00469728  0.0 
-0.0126243 0.00472982  0.0 
-0.0145422 0.00473091  0.0 
-0.0164552 0.00469868  0.0 
-0.0183493 0.00463165  0.0 
-0.0202101 0.00452876  0.0 
-0.0220227 0.0043894  0.0 
-0.0237721 0.00421348  0.0 
-0.0254434 0.00400142  0.0 
-0.0270218 0.00375418  0.0 
-0.0284931 0.00347329  0.0 
-0.029844 0.00316078  0.0 
-0.0310618 0.0028192  0.0 
-0.0321353 0.00245159  0.0 
-0.0330543 0.00206137  0.0 
-0.0338103 0.00165237  0.0 
-0.0343964 0.00122869  0.0 
-0.0348075 0.000794642  0.0 
-0.0350403 0.000354701  0.0 
-0.0350933 -8.66121e-05  0.0 
-0.0349668 -0.000524801  0.0 
-0.0346631 -0.00095547  0.0 
-0.0341863 -0.00137441  0.0 
-0.0335421 -0.00177765  0.0 
-0.0327376 -0.00216153  0.0 
-0.0317817 -0.00252278  0.0 
-0.0306842 -0.00285849  0.0 
-0.0294563 -0.00316622  0.0 
-0.0281099 -0.00344397  0.0 
-0.0266577 -0.00369022  0.0 
-0.0251128 -0.00390392  0.0 
-0.0234888 -0.00408446  0.0 
-0.0217992 -0.00423169  0.0 
-0.0200577 -0.00434587  0.0 
-0.0182776 -0.00442765  0.0 
-0.016472 -0.00447803  0.0 
-0.0146534 -0.00449832  0.0 
-0.0128338 -0.00449009  0.0 
-0.0110242 -0.00445517  0.0 
-0.00923523 -0.00439553  0.0 
-0.00747634 -0.00431333  0.0 
-0.00575619 -0.00421077  0.0 
-0.0040825 -0.00409017  0.0 
-0.00246203 -0.00395384  0.0 
-0.000900595 -0.00380409  0.0 
0.000596929 -0.00364319  0.0 
0.00202658 -0.00347334  0.0 
0.00338529 -0.00329666  0.0 
0.00467081 -0.00311517  0.0 
0.00588169 -0.00293074  0.0 
0.00701723 -0.00274514  0.0 
0.00807738 -0.00255997  0.0 
0.00906274 -0.00237671  0.0 
0.00997445 -0.00219665  0.0 
0.0108141 -0.00202097  0.0 
0.0115839 -0.00185067  0.0 
0.0122861 -0.00168662  0.0 
0.0129236 -0.00152954  0.0 
0.0134993 -0.00138003  0.0 
0.0140165 -0.00123854  0.0 
0.0144786 -0.00110542  0.0 
0.0148889 -0.000980911  0.0 
0.0152512 -0.000865137  0.0 
0.0155688 -0.000758143  0.0 
0.0158455 -0.000659886  0.0 
0.0160848 -0.00057025  0.0 
0.01629 -0.000489053  0.0 
0.0164646 -0.000416053  0.0 
0.0166118 -0.00035096  0.0 
0.0167348 -0.00029344  0.0 
0.0168365 -0.00024312  0.0 
0.0169198 -0.000199598  0.0 
0.0169873 -0.000162444  0.0 
0.0170415 -0.000131206  0.0 
0.0170846 -0.000105417  0.0 
0.0171189 -8.45909e-05  0.0 
0.0171461 -6.82333e-05  0.0 
0.0171679 -5.58387e-05  0.0 
0.0171859 -4.68942e-05  0.0 
0.0172013 -4.08805e-05  0.0 
0.0172152 -3.72728e-05  0.0 
0.0172285 -3.55418e-05  0.0 
0.0172418 -3.51536e-05  0.0 
0.0172555 -3.55702e-05  0.0 
0.017269 -5.11442e-05  0.0 
0.0172847 -5.24694e-05  0.0 
0.0173015 -5.2633e-05  0.0 
0.017319 -5.08579e-05  0.0 
0.0173364 -4.63609e-05  0.0 
0.017353 -3.83525e-05  0.0 
0.0173676 -2.60376e-05  0.0 
0.0173788 -8.61629e-06  0.0 
0.0173851 1.47143e-05  0.0 
0.0173848 4.47585e-05  0.0 
0.0173757 8.23185e-05  0.0 
0.0173555 0.000128191  0.0 
0.0173218 0.000183164  0.0 
0.0172719 0.000248006  0.0 
0.0172028 0.000323465  0.0 
0.0171112 0.000410259  0.0 
0.0169939 0.000509062  0.0 
0.0168472 0.000620497  0.0 
0.0166674 0.000745124  0.0 
0.0164505 0.000883424  0.0 
0.0161924 0.00103578  0.0 
0.0158889 0.00120248  0.0 
0.0155359 0.00138366  0.0 
0.0151288 0.00157932  0.0 
0.0146635 0.00178931  0.0 
0.0141357 0.00201325  0.0 
0.0135412 0.00225061  0.0 
0.012876 0.00250057  0.0 
0.0121363 0.00276211  0.0 
0.0113189 0.00303394  0.0 
0.0104205 0.00331446  0.0 
0.00943871 0.00360182  0.0 
0.0083715 0.00389385  0.0 
0.00721756 0.00418808  0.0 
0.00597634 0.00448177  0.0 
0.00464812 0.00477188  0.0 
0.00323412 0.00505508  0.0 
0.00173657 0.00532784  0.0 
0.000158797 0.00558641  0.0 
-0.00149473 0.00582688  0.0 
-0.00321834 0.00604522  0.0 
-0.00500514 0.0062374  0.0 
-0.006847 0.00639936  0.0 
-0.00873454 0.00652718  0.0 
-0.0106572 0.00661712  0.0 
-0.0126034 0.0066657  0.0 
-0.0145603 0.00666981  0.0 
-0.0165143 0.00662675  0.0 
-0.018451 0.0065344  0.0 
-0.0203553 0.00639118  0.0 
-0.022212 0.00619621  0.0 
-0.0240052 0.00594932  0.0 
-0.0257195 0.00565108  0.0 
-0.0273394 0.00530284  0.0 
-0.0288501 0.00490673  0.0 
-0.0302376 0.00446565  0.0 
-0.0314886 0.00398323  0.0 
-0.0325914 0.00346376  0.0 
-0.0335354 0.00291215  0.0 
-0.0343116 0.00233382  0.0 
-0.0349128 0.00173463  0.0 
-0.0353337 0.00112074  0.0 
-0.0355709 0.000498514  0.0 
-0.0356227 -0.0001256  0.0 
-0.0354898 -0.000745195  0.0 
-0.0351745 -0.00135401  0.0 
-0.0346812 -0.00194606  0.0 
-0.0340157 -0.0025157  0.0 
-0.0331859 -0.00305773  0.0 
-0.0322009 -0.00356751  0.0 
-0.0310712 -0.00404093  0.0 
-0.0298083 -0.00447454  0.0 
-0.0284249 -0.00486553  0.0 
-0.026934 -0.00521176  0.0 
-0.0253495 -0.00551178  0.0 
-0.0236854 -0.00576476  0.0 
-0.0219558 -0.00597053  0.0 
-0.0201749 -0.00612948  0.0 
-0.0183564 -0.00624258  0.0 
-0.0165138 -0.00631129  0.0 
-0.01466 -0.00633749  0.0 
-0.0128071 -0.00632345  0.0 
-0.0109667 -0.00627178  0.0 
-0.00914926 -0.00618532  0.0 
-0.00736459 -0.00606711  0.0 
-0.00562138 -0.00592034  0.0 
-0.00392742 -0.00574826  0.0 
-0.00228947 -0.00555417  0.0 
-0.000713313 -0.00534135  0.0 
0.000796239 -0.00511301  0.0 
0.00223532 -0.00487226  0.0 
0.00360097 -0.0046221  0.0 
0.00489109 -0.00436537  0.0 
0.00610438 -0.00410472  0.0 
0.0072403 -0.00384262  0.0 
0.008299 -0.00358134  0.0 
0.00928123 -0.00332293  0.0 
0.0101883 -0.00306923  0.0 
0.0110221 -0.00282185  0.0 
0.0117848 -0.00258222  0.0 
0.012479 -0.00235154  0.0 
0.0131077 -0.0021308  0.0 
0.0136741 -0.00192083  0.0 
0.0141814 -0.00172226  0.0 
0.0146332 -0.00153557  0.0 
0.0150331 -0.00136106  0.0 
0.0153848 -0.00119892  0.0 
0.015692 -0.00104918  0.0 
0.0159582 -0.000911785  0.0 
0.0161872 -0.000786548  0.0 
0.0163824 -0.000673206  0.0 
0.0165473 -0.000571411  0.0 
0.0166852 -0.000480748  0.0 
0.0167993 -0.000400738  0.0 
0.0168927 -0.000330854  0.0 
0.016968 -0.000270523  0.0 
0.0170281 -0.000219138  0.0 
0.0170755 -0.000176062  0.0 
0.0171124 -0.000140633  0.0 
0.017141 -0.00011217  0.0 
0.0171631 -8.99763e-05  0.0 
0.0171805 -7.33417e-05  0.0 
0.0171947 -6.15463e-05  0.0 
0.0172069 -5.38616e-05  0.0 
0.0172182 -4.95522e-05  0.0 
0.0172296 -4.7876e-05  0.0 
0.0172416 -4.80857e-05  0.0 
0.0172546 -4.94281e-05  0.0 
0.0172668 -6.64296e-05  0.0 
0.0172834 -6.94548e-05  0.0 
0.017302 -7.09972e-05  0.0 
0.0173221 -7.00576e-05  0.0 
0.0173431 -6.56287e-05  0.0 
0.0173641 -5.66943e-05  0.0 
0.0173841 -4.22306e-05  0.0 
0.0174016 -2.12066e-05  0.0 
0.0174152 7.41389e-06  0.0 
0.0174229 4.46699e-05  0.0 
0.0174229 9.15994e-05  0.0 
0.0174127 0.000149235  0.0 
0.0173899 0.000218599  0.0 
0.0173517 0.000300693  0.0 
0.0172951 0.000396493  0.0 
0.0172169 0.000506936  0.0 
0.0171137 0.00063291  0.0 
0.0169818 0.000775237  0.0 
0.0168174 0.000934661  0.0 
0.0166164 0.00111183  0.0 
0.0163746 0.00130726  0.0 
0.0160877 0.00152134  0.0 
0.0157513 0.0017543  0.0 
0.0153608 0.00200617  0.0 
0.0149118 0.00227678  0.0 
0.0143997 0.00256569  0.0 
0.0138202 0.00287222  0.0 
0.0131689 0.00319539  0.0 
0.012442 0.0035339  0.0 
0.0116355 0.0038861  0.0 
0.0107462 0.00424998  0.0 
0.0097711 0.00462315  0.0 
0.00870799 0.00500283  0.0 
0.00755517 0.00538586  0.0 
0.00631174 0.00576866  0.0 
0.00497766 0.00614729  0.0 
0.00355388 0.00651746  0.0 
0.00204235 0.00687454  0.0 
0.000446191 0.00721364  0.0 
-0.00123028 0.00752964  0.0 
-0.00298149 0.00781728  0.0 
-0.00480055 0.00807121  0.0 
-0.00667926 0.00828611  0.0 
-0.00860809 0.00845681  0.0 
-0.0105762 0.00857833  0.0 
-0.0125717 0.00864606  0.0 
-0.0145812 0.00865586  0.0 
-0.0165906 0.00860414  0.0 
-0.0185849 0.008488  0.0 
-0.0205483 0.00830535  0.0 
-0.0224646 0.00805495  0.0 
-0.0243173 0.00773651  0.0 
-0.0260899 0.00735073  0.0 
-0.0277661 0.00689935  0.0 
-0.0293303 0.00638514  0.0 
-0.0307675 0.00581188  0.0 
-0.0320637 0.0051843  0.0 
-0.0332064 0.00450807  0.0 
-0.0341842 0.00378963  0.0 
-0.0349878 0.00303613  0.0 
-0.0356095 0.00225527  0.0 
-0.0360437 0.00145517  0.0 
-0.0362867 0.000644216  0.0 
-0.036337 -0.000169108  0.0 
-0.0361952 -0.000976365  0.0 
-0.035864 -0.00176933  0.0 
-0.035348 -0.00254012  0.0 
-0.0346537 -0.00328134  0.0 
-0.0337894 -0.0039862  0.0 
-0.0327649 -0.00464859  0.0 
-0.0315913 -0.00526318  0.0 
-0.0302809 -0.00582547  0.0 
-0.0288472 -0.00633184  0.0 
-0.027304 -0.00677952  0.0 
-0.0256658 -0.00716667  0.0 
-0.0239475 -0.00749228  0.0 
-0.0221639 -0.00775617  0.0 
-0.0203297 -0.00795894  0.0 
-0.0184594 -0.00810192  0.0 
-0.0165669 -0.00818705  0.0 
-0.0146656 -0.00821689  0.0 
-0.0127681 -0.00819446  0.0 
-0.0108861 -0.00812319  0.0 
-0.00903056 -0.00800685  0.0 
-0.00721136 -0.00784946  0.0 
-0.00543734 -0.00765521  0.0 
-0.00371633 -0.00742836  0.0 
-0.00205512 -0.00717324  0.0 
-0.000459427 -0.00689413  0.0 
0.00106602 -0.00659523  0.0 
0.00251749 -0.00628059  0.0 
0.00389218 -0.00595411  0.0 
0.00518819 -0.00561948  0.0 
0.00640444 -0.00528014  0.0 
0.00754061 -0.00493928  0.0 
0.00859707 -0.00459984  0.0 
0.00957485 -0.00426445  0.0 
0.0104755 -0.00393547  0.0 
0.0113011 -0.003615  0.0 
0.0120542 -0.00330483  0.0 
0.0127375 -0.0030065  0.0 
0.0133543 -0.00272129  0.0 
0.0139078 -0.00245023  0.0 
0.0144018 -0.00219411  0.0 
0.0148398 -0.00195352  0.0 
0.0152256 -0.00172885  0.0 
0.015563 -0.00152029  0.0 
0.015856 -0.00132789  0.0 
0.0161082 -0.00115152  0.0 
0.0163233 -0.00099095  0.0 
0.0165051 -0.000845811  0.0 
0.016657 -0.000715639  0.0 
0.0167825 -0.000599882  0.0 
0.0168847 -0.000497912  0.0 
0.0169667 -0.000409034  0.0 
0.0170315 -0.000332502  0.0 
0.0170818 -0.000267523  0.0 
0.01712 -0.00021327  0.0 
0.0171485 -0.000168883  0.0 
0.0171695 -0.00013348  0.0 
0.0171849 -0.00010616  0.0 
0.0171963 -8.60056e-05  0.0 
0.0172054 -7.20877e-05  0.0 
0.0172133 -6.34676e-05  0.0 
0.0172212 -5.91981e-05  0.0 
0.01723 -5.83245e-05  0.0 
0.0172402 -5.98853e-05  0.0 
0.0172525 -6.29121e-05  0.0 
0.0172625 -8.22072e-05  0.0 
0.0172801 -8.79232e-05  0.0 
0.0173009 -9.18433e-05  0.0 
0.0173243 -9.27468e-05  0.0 
0.0173498 -8.94018e-05  0.0 
0.0173764 -8.05655e-05  0.0 
0.017403 -6.4984e-05  0.0 
0.0174285 -4.13935e-05  0.0 
0.017451 -8.52201e-06  0.0 
0.017469 3.49076e-05  0.0 
0.0174802 9.01739e-05  0.0 
0.0174825 0.000158551  0.0 
0.0174733 0.000241303  0.0 
0.0174498 0.000339674  0.0 
0.017409 0.000454877  0.0 
0.0173477 0.000588082  0.0 
0.0172622 0.000740405  0.0 
0.017149 0.000912882  0.0 
0.017004 0.00110646  0.0 
0.0168231 0.00132196  0.0 
0.0166019 0.00156008  0.0 
0.016336 0.00182133  0.0 
0.0160207 0.00210604  0.0 
0.0156513 0.00241429  0.0 
0.0152231 0.00274593  0.0 
0.0147312 0.0031005  0.0 
0.0141709 0.0034772  0.0 
0.0135377 0.00387488  0.0 
0.0128271 0.004292  0.0 
0.0120349 0.00472659  0.0 
0.0111576 0.00517621  0.0 
0.0101916 0.00563797  0.0 
0.0091342 0.00610848  0.0 
0.00798338 0.00658385  0.0 
0.00673777 0.0070597  0.0 
0.00539692 0.00753116  0.0 
0.00396137 0.00799292  0.0 
0.00243276 0.00843922  0.0 
0.0008139 0.00886397  0.0 
-0.000891095 0.00926078  0.0 
-0.00267678 0.00962304  0.0 
-0.00453631 0.00994403  0.0 
-0.00646139 0.0102171  0.0 
-0.00844232 0.0104356  0.0 
-0.010468 0.0105933  0.0 
-0.0125258 0.0106844  0.0 
-0.0146022 0.0107034  0.0 
-0.0166821 0.0106459  0.0 
-0.0187497 0.0105081  0.0 
-0.0207884 0.0102873  0.0 
-0.0227808 0.00998173  0.0 
-0.0247094 0.00959103  0.0 
-0.0265566 0.00911599  0.0 
-0.028305 0.00855871  0.0 
-0.0299376 0.00792261  0.0 
-0.0314384 0.00721241  0.0 
-0.0327924 0.00643404  0.0 
-0.0339861 0.00559459  0.0 
-0.0350073 0.00470219  0.0 
-0.0358459 0.0037658  0.0 
-0.0364938 0.00279515  0.0 
-0.0369448 0.00180046  0.0 
-0.0371951 0.000792285  0.0 
-0.0372433 -0.000218682  0.0 
-0.03709 -0.00122183  0.0 
-0.0367383 -0.00220681  0.0 
-0.0361932 -0.00316375  0.0 
-0.0354618 -0.00408336  0.0 
-0.0345532 -0.00495714  0.0 
-0.0334779 -0.00577747  0.0 
-0.0322481 -0.00653773  0.0 
-0.030877 -0.00723234  0.0 
-0.0293789 -0.00785682  0.0 
-0.0277688 -0.00840782  0.0 
-0.0260623 -0.00888311  0.0 
-0.0242749 -0.00928152  0.0 
-0.0224225 -0.00960293  0.0 
-0.0205207 -0.0098482  0.0 
-0.0185845 -0.0100191  0.0 
-0.0166288 -0.0101181  0.0 
-0.0146674 -0.0101486  0.0 
-0.0127134 -0.0101143  0.0 
-0.0107791 -0.0100197  0.0 
-0.00887554 -0.00986944  0.0 
-0.00701294 -0.00966869  0.0 
-0.00520028 -0.00942266  0.0 
-0.00344546 -0.00913673  0.0 
-0.00175524 -0.0088163  0.0 
-0.000135297 -0.00846671  0.0 
0.00140978 -0.00809318  0.0 
0.00287643 -0.00770076  0.0 
0.00426208 -0.00729428  0.0 
0.00556506 -0.0068783  0.0 
0.00678458 -0.00645708  0.0 
0.00792061 -0.00603454  0.0 
0.00897384 -0.00561428  0.0 
0.00994559 -0.00519954  0.0 
0.0108378 -0.00479322  0.0 
0.0116527 -0.00439784  0.0 
0.0123933 -0.0040156  0.0 
0.0130626 -0.00364835  0.0 
0.013664 -0.00329763  0.0 
0.0142012 -0.00296468  0.0 
0.0146781 -0.00265043  0.0 
0.0150985 -0.00235556  0.0 
0.0154664 -0.00208052  0.0 
0.0157858 -0.00182551  0.0 
0.0160607 -0.00159055  0.0 
0.0162951 -0.00137546  0.0 
0.0164929 -0.00117992  0.0 
0.0166577 -0.00100345  0.0 
0.0167932 -0.000845452  0.0 
0.016903 -0.000705231  0.0 
0.0169902 -0.000581992  0.0 
0.0170581 -0.000474868  0.0 
0.0171095 -0.000382927  0.0 
0.0171474 -0.000305184  0.0 
0.0171742 -0.000240612  0.0 
0.0171922 -0.000188149  0.0 
0.0172037 -0.000146708  0.0 
0.0172106 -0.000115178  0.0 
0.0172146 -9.24327e-05  0.0 
0.0172172 -7.73312e-05  0.0 
0.0172198 -6.8723e-05  0.0 
0.0172234 -6.54481e-05  0.0 
0.0172289 -6.63385e-05  0.0 
0.017237 -7.02188e-05  0.0 
0.0172481 -7.59056e-05  0.0 
0.0172548 -9.85705e-05  0.0 
0.0172738 -0.000108188  0.0 
0.0172972 -0.000115706  0.0 
0.0173245 -0.000119684  0.0 
0.0173553 -0.000118666  0.0 
0.0173886 -0.000111182  0.0 
0.0174233 -9.57464e-05  0.0 
0.0174581 -7.08613e-05  0.0 
0.0174915 -3.50161e-05  0.0 
0.0175216 1.33087e-05  0.0 
0.0175465 7.56374e-05  0.0 
0.0175638 0.000153493  0.0 
0.017571 0.00024839  0.0 
0.0175653 0.000361823  0.0 
0.0175435 0.000495258  0.0 
0.0175025 0.000650112  0.0 
0.0174385 0.000827744  0.0 
0.0173479 0.00102943  0.0 
0.0172265 0.00125633  0.0 
0.01707 0.00150948  0.0 
0.016874 0.00178977  0.0 
0.0166337 0.00209786  0.0 
0.0163442 0.00243422  0.0 
0.0160007 0.00279903  0.0 
0.015598 0.00319217  0.0 
0.015131 0.00361318  0.0 
0.0145946 0.00406119  0.0 
0.0139837 0.00453494  0.0 
0.0132937 0.00503264  0.0 
0.0125197 0.00555203  0.0 
0.0116575 0.0060903  0.0 
0.0107034 0.00664404  0.0 
0.00965387 0.00720927  0.0 
0.00850639 0.00778137  0.0 
0.00725905 0.00835514  0.0 
0.00591088 0.00892475  0.0 
0.00446193 0.00948383  0.0 
0.0029134 0.0100255  0.0 
0.00126775 0.0105423  0.0 
-0.000471219 0.0110265  0.0 
-0.00229823 0.01147  0.0 
-0.00420651 0.0118648  0.0 
-0.00618769 0.0122026  0.0 
-0.00823185 0.0124752  0.0 
-0.0103275 0.012675  0.0 
-0.0124615 0.0127946  0.0 
-0.0146196 0.0128276  0.0 
-0.0167859 0.012768  0.0 
-0.0189436 0.0126113  0.0 
-0.0210747 0.0123539  0.0 
-0.0231608 0.0119937  0.0 
-0.025183 0.0115299  0.0 
-0.0271222 0.0109635  0.0 
-0.0289595 0.0102969  0.0 
-0.0306766 0.00953418  0.0 
-0.0322561 0.0086811  0.0 
-0.0336815 0.00774485  0.0 
-0.0349382 0.00673408  0.0 
-0.036013 0.00565871  0.0 
-0.0368948 0.00452974  0.0 
-0.0375749 0.00335907  0.0 
-0.0380465 0.00215923  0.0 
-0.0383058 0.000943148  0.0 
-0.0383511 -0.000276075  0.0 
-0.0381833 -0.00148546  0.0 
-0.0378059 -0.00267235  0.0 
-0.0372246 -0.0038247  0.0 
-0.0364471 -0.0049312  0.0 
-0.0354835 -0.00598152  0.0 
-0.0343455 -0.00696643  0.0 
-0.0330461 -0.00787793  0.0 
-0.0316 -0.00870933  0.0 
-0.0300227 -0.00945528  0.0 
-0.0283302 -0.0101118  0.0 
-0.0265395 -0.0106764  0.0 
-0.0246673 -0.0111478  0.0 
-0.0227306 -0.0115258  0.0 
-0.0207459 -0.0118119  0.0 
-0.0187293 -0.0120081  0.0 
-0.0166964 -0.0121178  0.0 
-0.0146618 -0.012145  0.0 
-0.0126392 -0.0120945  0.0 
-0.0106412 -0.0119717  0.0 
-0.00867959 -0.0117826  0.0 
-0.00676458 -0.0115332  0.0 
-0.00490539 -0.01123  0.0 
-0.00310997 -0.0108796  0.0 
-0.00138509 -0.0104885  0.0 
0.000263698 -0.0100632  0.0 
0.00183197 -0.00961001  0.0 
0.00331638 -0.00913499  0.0 
0.00471464 -0.00864396  0.0 
0.0060254 -0.00814237  0.0 
0.00724821 -0.00763533  0.0 
0.0083834 -0.00712751  0.0 
0.00943207 -0.0066232  0.0 
0.0103959 -0.00612623  0.0 
0.0112772 -0.00564001  0.0 
0.0120788 -0.00516754  0.0 
0.0128037 -0.00471137  0.0 
0.0134555 -0.00427367  0.0 
0.014038 -0.00385622  0.0 
0.014555 -0.00346042  0.0 
0.0150109 -0.00308736  0.0 
0.0154097 -0.00273778  0.0 
0.0157556 -0.00241216  0.0 
0.016053 -0.00211069  0.0 
0.016306 -0.00183334  0.0 
0.0165188 -0.00157986  0.0 
0.0166954 -0.00134982  0.0 
0.0168396 -0.00114261  0.0 
0.0169553 -0.00095749  0.0 
0.0170459 -0.000793596  0.0 
0.017115 -0.000649958  0.0 
0.0171658 -0.00052552  0.0 
0.0172012 -0.000419154  0.0 
0.0172241 -0.000329673  0.0 
0.017237 -0.000255844  0.0 
0.0172424 -0.000196394  0.0 
0.0172425 -0.000150025  0.0 
0.0172392 -0.000115412  0.0 
0.0172342 -9.12157e-05  0.0 
0.0172291 -7.60815e-05  0.0 
0.0172252 -6.86451e-05  0.0 
0.0172236 -6.75327e-05  0.0 
0.0172252 -7.13628e-05  0.0 
0.0172307 -7.87459e-05  0.0 
0.0172405 -8.82842e-05  0.0 
0.0172426 -0.000115603  0.0 
0.017263 -0.00013055  0.0 
0.0172894 -0.000143109  0.0 
0.0173214 -0.000151618  0.0 
0.0173583 -0.000154397  0.0 
0.0173993 -0.00014975  0.0 
0.0174434 -0.000135958  0.0 
0.0174892 -0.000111289  0.0 
0.0175352 -7.39897e-05  0.0 
0.0175796 -2.2294e-05  0.0 
0.0176204 4.55738e-05  0.0 
0.0176553 0.000131393  0.0 
0.0176816 0.000236939  0.0 
0.0176967 0.000363971  0.0 
0.0176973 0.000514218  0.0 
0.0176802 0.000689366  0.0 
0.0176415 0.000891033  0.0 
0.0175776 0.00112075  0.0 
0.017484 0.00137994  0.0 
0.0173565 0.00166987  0.0 
0.0171903 0.00199164  0.0 
0.0169804 0.00234613  0.0 
0.0167219 0.00273395  0.0 
0.0164093 0.00315543  0.0 
0.0160372 0.00361054  0.0 
0.0156002 0.00409884  0.0 
0.0150926 0.00461947  0.0 
0.0145091 0.00517103  0.0 
0.0138442 0.00575159  0.0 
0.0130926 0.00635861  0.0 
0.0122496 0.00698892  0.0 
0.0113105 0.00763863  0.0 
0.0102715 0.00830317  0.0 
0.00912925 0.00897722  0.0 
0.00788115 0.00965472  0.0 
0.00652561 0.0103289  0.0 
0.00506207 0.0109922  0.0 
0.00349118 0.0116365  0.0 
0.00181491 0.0122531  0.0 
3.67038e-05 0.0128328  0.0 
-0.00183842 0.0133659  0.0 
-0.00380379 0.0138426  0.0 
-0.00585101 0.0142531  0.0 
-0.0079699 0.0145877  0.0 
-0.0101485 0.0148368  0.0 
-0.0123733 0.0149917  0.0 
-0.0146288 0.0150442  0.0 
-0.0168984 0.0149873  0.0 
-0.0191639 0.0148151  0.0 
-0.021406 0.0145234  0.0 
-0.0236048 0.0141091  0.0 
-0.0257396 0.0135714  0.0 
-0.0277896 0.0129112  0.0 
-0.0297343 0.0121311  0.0 
-0.0315534 0.0112361  0.0 
-0.0332277 0.010233  0.0 
-0.0347395 0.00913018  0.0 
-0.0360722 0.00793817  0.0 
-0.0372116 0.00666883  0.0 
-0.0381456 0.00533539  0.0 
-0.0388643 0.00395216  0.0 
-0.0393607 0.00253423  0.0 
-0.0396304 0.00109716  0.0 
-0.0396719 -0.000343309  0.0 
-0.0394863 -0.00177157  0.0 
-0.0390775 -0.00317245  0.0 
-0.038452 -0.0045315  0.0 
-0.0376186 -0.00583522  0.0 
-0.0365884 -0.00707131  0.0 
-0.0353743 -0.0082288  0.0 
-0.033991 -0.00929823  0.0 
-0.0324543 -0.0102718  0.0 